 # File generated with Atomsk by rodyherrera on 2026-06-13 23:12:53
  
          16  atoms
           2  atom types
 
      0.000000000000       5.089000000000  xlo xhi
      0.000000000000       6.743400000000  ylo yhi
      0.000000000000       4.523500000000  zlo zhi
 
Masses
 
            1   55.84500000             # Fe
            2   12.01100000             # C
 
Atoms # atomic
 
         1    1        0.183204000000       1.685850000000       3.854022000000
         2    1        2.361296000000       5.057550000000       1.592272000000
         3    1        4.905796000000       5.057550000000       0.669478000000
         4    1        2.727704000000       1.685850000000       2.931228000000
         5    1        0.946554000000       0.424834000000       1.483708000000
         6    1        1.597946000000       6.318566000000       3.745458000000
         7    1        4.142446000000       3.796534000000       3.039792000000
         8    1        3.491054000000       2.946866000000       0.778042000000
         9    1        4.142446000000       6.318566000000       3.039792000000
        10    1        3.491054000000       0.424834000000       0.778042000000
        11    1        0.946554000000       2.946866000000       1.483708000000
        12    1        1.597946000000       3.796534000000       3.745458000000
        13    2        4.529210000000       1.685850000000       2.035575000000
        14    2        3.104290000000       5.057550000000       4.297325000000
        15    2        0.559790000000       5.057550000000       2.487925000000
        16    2        1.984710000000       1.685850000000       0.226175000000
