 # Forsterite - Mg2SiO4 Relaxed (0 GPa) using Pedonne et al. (2006) interatomic potential 

          28  atoms
           3  atom types
 
      0.000000000000       4.843540318444  xlo xhi
      0.000000000000      10.186409263258  ylo yhi
      0.000000000000       6.001395975117  zlo zhi
 
Masses
 
            1   24.30500000             # Mg
            2   28.08500000             # Si
            3   15.99900000             # O
 
Atoms # charge
 
         1    1   1.200000       -0.000000040778       0.000000001629      -0.000000012442
         2    1   1.200000        4.769590159222       2.815664631629       1.500347987558
         3    2   2.400000        2.088990159222       0.987407631629       1.500347987558
         4    3  -1.200000        3.652780159222       0.906211631629       1.500347987558
         5    3  -1.200000        1.028994159222       4.594354631629       1.500347987558
         6    3  -1.200000        1.391070159222       1.646984631629       0.222159987558
         7    1   1.200000       -0.000000040778       0.000000001629       3.000697987558
         8    3  -1.200000        1.391070159222       1.646984631629       2.778537987558
         9    1   1.200000        0.073945659222       7.370744631629       4.501047987558
        10    2   2.400000        2.754550159222       9.199004631629       4.501047987558
        11    3  -1.200000        1.190760159222       9.280194631629       4.501047987558
        12    3  -1.200000        3.814550159222       5.592054631629       4.501047987558
        13    3  -1.200000        3.452470159222       8.539424631629       3.222857987558
        14    3  -1.200000        3.452470159222       8.539424631629       5.779237987558
        15    1   1.200000        2.421770159222       5.093204631629       3.000697987558
        16    1   1.200000        2.347820159222       2.277544631629       4.501047987558
        17    2   2.400000        4.510760159222       4.105794631629       4.501047987558
        18    3  -1.200000        1.231010159222       4.186994631629       4.501047987558
        19    3  -1.200000        3.450760159222       0.498846631629       4.501047987558
        20    3  -1.200000        3.812840159222       3.446214631629       3.222857987558
        21    1   1.200000        2.421770159222       5.093204631629      -0.000000012442
        22    3  -1.200000        3.812840159222       3.446214631629       5.779237987558
        23    1   1.200000        2.495720159222       7.908864631629       1.500347987558
        24    2   2.400000        0.332782159222       6.080614631629       1.500347987558
        25    3  -1.200000        3.612530159222       5.999414631629       1.500347987558
        26    3  -1.200000        1.392780159222       9.687564631629       1.500347987558
        27    3  -1.200000        1.030699159222       6.740194631629       0.222159987558
        28    3  -1.200000        1.030699159222       6.740194631629       2.778537987558
